# vtk DataFile Version 2.0
hp3d export mesh 
ASCII
DATASET UNSTRUCTURED_GRID
POINTS         1680  double
      0.000000000000000     0.000000000000000     6.283184000000000
      0.785398000000000     0.785398000000000     6.283184000000000
      0.000000000000000     0.785398000000000     5.497786000000001
      0.000000000000000     0.785398000000000     6.283184000000000
      1.570796000000000     1.570796000000000     6.283184000000000
      0.785398000000000     1.570796000000000     5.497786000000001
      0.785398000000000     1.570796000000000     6.283184000000000
      0.000000000000000     1.570796000000000     4.712388000000001
      0.000000000000000     1.570796000000000     5.497786000000000
      0.000000000000000     1.570796000000000     6.283184000000000
      2.356194000000000     2.356194000000000     6.283184000000000
      1.570796000000000     2.356194000000000     5.497786000000001
      1.570796000000000     2.356194000000000     6.283184000000000
      3.141592000000000     3.141592000000000     6.283184000000000
      2.356194000000000     3.141592000000000     5.497786000000001
      2.356194000000000     3.141592000000000     6.283184000000000
      1.570796000000000     3.141592000000000     4.712388000000001
      1.570796000000000     3.141592000000000     5.497786000000000
      1.570796000000000     3.141592000000000     6.283184000000000
      0.785398000000000     2.356194000000000     4.712388000000001
      0.000000000000000     2.356194000000000     3.926990000000000
      0.000000000000000     2.356194000000000     4.712388000000001
      0.785398000000000     3.141592000000000     3.926990000000000
      0.785398000000000     3.141592000000000     4.712388000000001
      0.000000000000000     3.141592000000000     3.141592000000000
      0.000000000000000     3.141592000000000     3.926990000000000
      0.000000000000000     3.141592000000000     4.712388000000001
      0.785398000000000     2.356194000000000     6.283184000000000
      0.000000000000000     2.356194000000000     5.497786000000001
      0.000000000000000     2.356194000000000     6.283184000000000
      0.785398000000000     3.141592000000000     5.497786000000001
      0.785398000000000     3.141592000000000     6.283184000000000
      0.000000000000000     3.141592000000000     5.497786000000001
      0.000000000000000     3.141592000000000     6.283184000000000
      0.785398000000000     2.356194000000000     5.497786000000000
      3.141592000000000     3.141592000000000     6.283184000000000
      3.926990000000000     3.926990000000000     6.283184000000000
      3.141592000000000     3.926990000000000     5.497786000000001
      3.141592000000000     3.926990000000000     6.283184000000000
      4.712388000000001     4.712388000000001     6.283184000000000
      3.926990000000000     4.712388000000001     5.497786000000001
      3.926990000000000     4.712388000000001     6.283184000000000
      3.141592000000000     4.712388000000001     4.712388000000001
      3.141592000000000     4.712388000000001     5.497786000000000
      3.141592000000000     4.712388000000001     6.283184000000000
      5.497786000000001     5.497786000000001     6.283184000000000
      4.712388000000000     5.497786000000000     5.497786000000001
      4.712388000000000     5.497786000000000     6.283184000000000
      6.283184000000000     6.283184000000000     6.283184000000000
      5.497786000000001     6.283184000000000     5.497786000000001
      5.497786000000001     6.283184000000000     6.283184000000000
      4.712388000000001     6.283184000000000     4.712388000000001
      4.712388000000000     6.283184000000000     5.497786000000000
      4.712388000000001     6.283184000000000     6.283184000000000
      3.926990000000000     5.497786000000001     4.712388000000001
      3.141592000000000     5.497786000000001     3.926990000000000
      3.141592000000000     5.497786000000000     4.712388000000001
      3.926990000000000     6.283184000000000     3.926990000000000
      3.926990000000000     6.283184000000000     4.712388000000001
      3.141592000000000     6.283184000000000     3.141592000000000
      3.141592000000000     6.283184000000000     3.926990000000000
      3.141592000000000     6.283184000000000     4.712388000000001
      3.926990000000000     5.497786000000001     6.283184000000000
      3.141592000000000     5.497786000000001     5.497786000000001
      3.141592000000000     5.497786000000001     6.283184000000000
      3.926990000000000     6.283184000000000     5.497786000000001
      3.926990000000000     6.283184000000000     6.283184000000000
      3.141592000000000     6.283184000000000     5.497786000000001
      3.141592000000000     6.283184000000000     6.283184000000000
      3.926990000000000     5.497786000000001     5.497786000000000
      0.000000000000000     3.141592000000000     3.141592000000000
      0.785398000000000     3.926990000000000     3.141592000000000
      0.000000000000000     3.926990000000000     2.356194000000000
      0.000000000000000     3.926990000000000     3.141592000000000
      1.570796000000000     4.712388000000001     3.141592000000000
      0.785398000000000     4.712388000000001     2.356194000000000
      0.785398000000000     4.712388000000001     3.141592000000000
      0.000000000000000     4.712388000000001     1.570796000000000
      0.000000000000000     4.712388000000001     2.356194000000000
      0.000000000000000     4.712388000000001     3.141592000000000
      2.356194000000000     5.497786000000001     3.141592000000000
      1.570796000000000     5.497786000000000     2.356194000000000
      1.570796000000000     5.497786000000000     3.141592000000000
      3.141592000000000     6.283184000000000     3.141592000000000
      2.356194000000000     6.283184000000000     2.356194000000000
      2.356194000000000     6.283184000000000     3.141592000000000
      1.570796000000000     6.283184000000000     1.570796000000000
      1.570796000000000     6.283184000000000     2.356194000000000
      1.570796000000000     6.283184000000000     3.141592000000000
      0.785398000000000     5.497786000000001     1.570796000000000
      0.000000000000000     5.497786000000001     0.785398000000000
      0.000000000000000     5.497786000000000     1.570796000000000
      0.785398000000000     6.283184000000000     0.785398000000000
      0.785398000000000     6.283184000000000     1.570796000000000
      0.000000000000000     6.283184000000000     0.000000000000000
      0.000000000000000     6.283184000000000     0.785398000000000
      0.000000000000000     6.283184000000000     1.570796000000000
      0.785398000000000     5.497786000000001     3.141592000000000
      0.000000000000000     5.497786000000001     2.356194000000000
      0.000000000000000     5.497786000000001     3.141592000000000
      0.785398000000000     6.283184000000000     2.356194000000000
      0.785398000000000     6.283184000000000     3.141592000000000
      0.000000000000000     6.283184000000000     2.356194000000000
      0.000000000000000     6.283184000000000     3.141592000000000
      0.785398000000000     5.497786000000001     2.356194000000000
      0.000000000000000     3.141592000000000     6.283184000000000
      0.785398000000000     3.926990000000000     6.283184000000000
      0.000000000000000     3.926990000000000     5.497786000000001
      0.000000000000000     3.926990000000000     6.283184000000000
      1.570796000000000     4.712388000000001     6.283184000000000
      0.785398000000000     4.712388000000001     5.497786000000001
      0.785398000000000     4.712388000000001     6.283184000000000
      0.000000000000000     4.712388000000001     4.712388000000001
      0.000000000000000     4.712388000000001     5.497786000000000
      0.000000000000000     4.712388000000001     6.283184000000000
      2.356194000000000     5.497786000000001     6.283184000000000
      1.570796000000000     5.497786000000000     5.497786000000001
      1.570796000000000     5.497786000000000     6.283184000000000
      3.141592000000000     6.283184000000000     6.283184000000000
      2.356194000000000     6.283184000000000     5.497786000000001
      2.356194000000000     6.283184000000000     6.283184000000000
      1.570796000000000     6.283184000000000     4.712388000000001
      1.570796000000000     6.283184000000000     5.497786000000000
      1.570796000000000     6.283184000000000     6.283184000000000
      0.785398000000000     5.497786000000001     4.712388000000001
      0.000000000000000     5.497786000000001     3.926990000000000
      0.000000000000000     5.497786000000000     4.712388000000001
      0.785398000000000     6.283184000000000     3.926990000000000
      0.785398000000000     6.283184000000000     4.712388000000001
      0.000000000000000     6.283184000000000     3.141592000000000
      0.000000000000000     6.283184000000000     3.926990000000000
      0.000000000000000     6.283184000000000     4.712388000000001
      0.785398000000000     5.497786000000001     6.283184000000000
      0.000000000000000     5.497786000000001     5.497786000000001
      0.000000000000000     5.497786000000001     6.283184000000000
      0.785398000000000     6.283184000000000     5.497786000000001
      0.785398000000000     6.283184000000000     6.283184000000000
      0.000000000000000     6.283184000000000     5.497786000000001
      0.000000000000000     6.283184000000000     6.283184000000000
      0.785398000000000     5.497786000000001     5.497786000000000
      3.141592000000000     3.141592000000000     6.283184000000000
      2.356194000000000     3.926990000000000     5.497786000000001
      2.356194000000000     3.141592000000000     6.283184000000000
      3.141592000000000     3.926990000000000     6.283184000000000
      1.570796000000000     4.712388000000001     4.712388000000001
[...]
POINT_DATA         1680
VECTORS          H1_GR_EX double 
  -0.000111251814815    -0.000111251814815     0.002684810664505
   0.000232797508943     0.000232797508943     0.002623301232234
  -0.000187899306184     0.000402403646149     0.003944221418351
  -0.000109965571028     0.000235501385760     0.002653770148754
   0.000497628003359     0.000497628003359     0.002273084595799
   0.000358402467100     0.000884158187546     0.003512936877087
   0.000216365311644     0.000533760758117     0.002438133349642
  -0.000312672898872     0.001651908387430     0.005581071134657
  -0.000169878767338     0.000897500780411     0.003565949620679
  -0.000102152320324     0.000539689499419     0.002465215045959
   0.000626912107691     0.000626912107691     0.001795787131414
   0.000684825237840     0.001092049642466     0.002720947144553
   0.000440445146523     0.000702351448126     0.002011882839724
   0.000642456405330     0.000642456405330     0.001340458053164
   0.000777070585173     0.001066839555278     0.001936146407388
   0.000538105785381     0.000738764996640     0.001541401841678
   0.000858404906467     0.001879288465716     0.002900172024965
   0.000555006961804     0.001215065596625     0.002205153461546
   0.000374127033865     0.000819068751298     0.001708952127956
   0.000516399682965     0.002031456911936     0.004304042551666
  -0.000466183788376     0.003927493933588     0.006856612395495
  -0.000245661649387     0.002069644397125     0.004384950734675
   0.000641677062958     0.003465586807579     0.004406889900565
   0.000383828999475     0.002072994131595     0.003199104219675
  -0.000545285176486     0.006306969095021     0.006306969095021
  -0.000306039291900     0.003539763158187     0.004501213785261
  -0.000182044881512     0.002105598105118     0.003249419620261
   0.000190527673112     0.000749513914343     0.002146979561076
  -0.000143097917316     0.001205567969009     0.003003789111972
  -0.000089879707957     0.000757216417696     0.002169043291360
   0.000242497000727     0.001309684361331     0.002376871649176
   0.000160829877132     0.000868614355568     0.001812327071093
  -0.000114580405352     0.001325279125012     0.002405173843727
  -0.000075793876022     0.000876659876667     0.001829113578424
   0.000302341009956     0.001189374714158     0.002963442122564
   0.000642456405330     0.000642456405330     0.001340458053164
   0.000594126118813     0.000594126118813     0.000974838738330
   0.000732653716113     0.000931653019506     0.001329651568085
   0.000543617992662     0.000691272492986     0.001134235877544
   0.000521720212419     0.000521720212419     0.000705369864590
   0.000637630233541     0.000773826846853     0.000910023401957
   0.000501301081385     0.000608378031757     0.000822531932499
   0.000767335994169     0.001184174907394     0.001184174907394
   0.000587575661484     0.000906763714738     0.001066357712261
   0.000451509462437     0.000696782430168     0.000942055368796
   0.000447183701908     0.000447183701908     0.000514110433869
   0.000536821316928     0.000631304050330     0.000631304050330
   0.000441946845967     0.000519731256645     0.000597515667323
   0.000379829085432     0.000379829085432     0.000379829085432
   0.000447183701908     0.000514110433869     0.000447183701908
   0.000381619698601     0.000438733928604     0.000438733928604
   0.000521720212419     0.000705369864590     0.000521720212419
   0.000441946845967     0.000597515667323     0.000519731256645
   0.000371594534954     0.000502398761455     0.000502398761455
   0.000637630233541     0.000910023401957     0.000773826846853
   0.000732653716113     0.001329651568085     0.000931653019506
   0.000587575661484     0.001066357712261     0.000906763714738
   0.000594126118813     0.000974838738330     0.000594126118813
   0.000501301081385     0.000822531932499     0.000608378031757
   0.000642456405330     0.001340458053164     0.000642456405330
   0.000543617992662     0.001134235877544     0.000691272492986
   0.000451509462437     0.000942055368796     0.000696782430168
   0.000418010342401     0.000596582773142     0.000685868959408
   0.000467221922008     0.000847934512421     0.000847934512421
   0.000370872003259     0.000673074508086     0.000773808686063
   0.000418010342401     0.000685868959408     0.000596582773142
   0.000346330925822     0.000568257761188     0.000568257761188
   0.000370872003259     0.000773808686063     0.000673074508086
   0.000303061882732     0.000632325769402     0.000632325769402
   0.000517303124070     0.000738293048926     0.000738293048926
  -0.000545285176486     0.006306969095021     0.006306969095021
   0.000641677062958     0.004406889900565     0.003465586807579
  -0.000466183788376     0.006856612395495     0.003927493933588
  -0.000306039291900     0.004501213785261     0.003539763158187
   0.000858404906467     0.002900172024965     0.001879288465716
   0.000516399682965     0.004304042551666     0.002031456911936
   0.000383828999475     0.003199104219675     0.002072994131595
  -0.000312672898872     0.005581071134657     0.001651908387430
  -0.000245661649387     0.004384950734675     0.002069644397125
  -0.000182044881512     0.003249419620261     0.002105598105118
   0.000777070585173     0.001936146407388     0.001066839555278
   0.000684825237840     0.002720947144553     0.001092049642466
   0.000555006961804     0.002205153461546     0.001215065596625
   0.000642456405330     0.001340458053164     0.000642456405330
   0.000626912107691     0.001795787131414     0.000626912107691
   0.000538105785381     0.001541401841678     0.000738764996640
   0.000497628003359     0.002273084595799     0.000497628003359
   0.000440445146523     0.002011882839724     0.000702351448126
   0.000374127033865     0.001708952127956     0.000819068751298
   0.000358402467100     0.003512936877087     0.000884158187546
  -0.000187899306184     0.003944221418351     0.000402403646149
  -0.000169878767338     0.003565949620679     0.000897500780411
   0.000232797508943     0.002623301232234     0.000232797508943
   0.000216365311644     0.002438133349642     0.000533760758117
  -0.000111251814815     0.002684810664505    -0.000111251814815
  -0.000109965571028     0.002653770148754     0.000235501385760
  -0.000102152320324     0.002465215045959     0.000539689499419
   0.000242497000727     0.002376871649176     0.001309684361331
  -0.000143097917316     0.003003789111972     0.001205567969009
  -0.000114580405352     0.002405173843727     0.001325279125012
   0.000190527673112     0.002146979561076     0.000749513914343
   0.000160829877132     0.001812327071093     0.000868614355568
  -0.000089879707957     0.002169043291360     0.000757216417696
  -0.000075793876022     0.001829113578424     0.000876659876667
   0.000302341009956     0.002963442122564     0.001189374714158
  -0.000075793876022     0.000876659876667     0.001829113578424
   0.000131807741127     0.000905225228053     0.001485288259573
  -0.000088965440227     0.001308500184678     0.001867486396804
  -0.000062050967244     0.000912643154152     0.001497459714301
   0.000250031327596     0.000844745780341     0.001142102992162
   0.000144533187267     0.001204642350785     0.001416664221324
   0.000106090803456     0.000884236244019     0.001195494434796
  -0.000094190923846     0.001681265770458     0.001681265770458
  -0.000068074019509     0.001215090858750     0.001428951625712
  -0.000049893271353     0.000890572555363     0.001204061089084
   0.000298029510304     0.000742569332942     0.000853704288602
   0.000259865919361     0.001032499130815     0.001032499130815
   0.000200649592443     0.000797220855020     0.000916535092983
   0.000303061882732     0.000632325769402     0.000632325769402
   0.000298029510304     0.000853704288602     0.000742569332942
   0.000240651963395     0.000689346576110     0.000689346576110
   0.000250031327596     0.001142102992162     0.000844745780341
   0.000200649592443     0.000916535092983     0.000797220855020
   0.000160567011335     0.000733444292564     0.000733444292564
   0.000144533187267     0.001416664221324     0.001204642350785
  -0.000088965440227     0.001867486396804     0.001308500184678
  -0.000068074019509     0.001428951625712     0.001215090858750
   0.000131807741127     0.001485288259573     0.000905225228053
   0.000106090803456     0.001195494434796     0.000884236244019
  -0.000075793876022     0.001829113578424     0.000876659876667
  -0.000062050967244     0.001497459714301     0.000912643154152
  -0.000049893271353     0.001204061089084     0.000890572555363
   0.000084638661065     0.000829598866403     0.000953758950345
  -0.000051922761486     0.001089918194339     0.001089918194339
  -0.000039767528506     0.000834765902255     0.000959699274972
   0.000084638661065     0.000953758950345     0.000829598866403
   0.000067379740358     0.000759275106248     0.000759275106248
  -0.000039767528506     0.000959699274972     0.000834765902255
  -0.000031632447644     0.000763377523981     0.000763377523981
   0.000110386674351     0.001081972033717     0.001081972033717
   0.000642456405330     0.000642456405330     0.001340458053164
   0.000621222367045     0.001084528979845     0.001547835534438
   0.000538105785381     0.000738764996640     0.001541401841678
   0.000543617992662     0.000691272492986     0.001134235877544
   0.000460593990283     0.001556144328788     0.001556144328788
   0.000436163507402     0.001214244170114     0.001732964650728
   0.000488334218971     0.001034632558003     0.001216731965542
   0.000374127033865     0.000819068751298     0.001708952127956
   0.000448916136520     0.000783717026934     0.001285918406211
   0.000451509462437     0.000696782430168     0.000942055368796
   0.000188601494301     0.001848606625572     0.001295271562412
   0.000199607951799     0.001663674716838     0.001663674716838
   0.000337446574122     0.001340742572211     0.001140083419159
  -0.000075793876022     0.001829113578424     0.000876659876667
  -0.000088965440227     0.001867486396804     0.001308500184678
   0.000131807741127     0.001485288259573     0.000905225228053
  -0.000094190923846     0.001681265770458     0.001681265770458
   0.000144533187267     0.001416664221324     0.001204642350785
   0.000250031327596     0.001142102992162     0.000844745780341
   0.000188601494301     0.001295271562412     0.001848606625572
   0.000160829877132     0.000868614355568     0.001812327071093
   0.000308653106913     0.000859265448526     0.001409877790138
  -0.000088965440227     0.001308500184678     0.001867486396804
   0.000144533187267     0.001204642350785     0.001416664221324
  -0.000075793876022     0.000876659876667     0.001829113578424
   0.000131807741127     0.000905225228053     0.001485288259573
   0.000250031327596     0.000844745780341     0.001142102992162
   0.000381380406907     0.000950246176217     0.000950246176217
   0.000367646513041     0.000778931716923     0.001053121872246
   0.000370872003259     0.000673074508086     0.000773808686063
   0.000259865919361     0.001032499130815     0.001032499130815
   0.000298029510304     0.000853704288602     0.000742569332942
   0.000298029510304     0.000742569332942     0.000853704288602
   0.000303061882732     0.000632325769402     0.000632325769402
   0.000337446574122     0.001140083419159     0.001340742572211
   0.000642456405330     0.000642456405330     0.001340458053164
   0.000621222367045     0.001084528979845     0.001547835534438
   0.000543617992662     0.000691272492986     0.001134235877544
   0.000732653716113     0.000931653019506     0.001329651568085
   0.000460593990283     0.001556144328788     0.001556144328788
   0.000488334218971     0.001034632558003     0.001216731965542
   0.000653609109577     0.001384800067171     0.001384800067171
   0.000451509462437     0.000696782430168     0.000942055368796
   0.000587575661484     0.000906763714738     0.001066357712261
   0.000767335994169     0.001184174907394     0.001184174907394
   0.000188601494301     0.001848606625572     0.001295271562412
   0.000337446574122     0.001340742572211     0.001140083419159
   0.000436163507402     0.001732964650728     0.001214244170114
  -0.000075793876022     0.001829113578424     0.000876659876667
   0.000131807741127     0.001485288259573     0.000905225228053
   0.000160829877132     0.001812327071093     0.000868614355568
   0.000250031327596     0.001142102992162     0.000844745780341
   0.000308653106913     0.001409877790138     0.000859265448526
   0.000374127033865     0.001708952127956     0.000819068751298
   0.000381380406907     0.000950246176217     0.000950246176217
   0.000370872003259     0.000673074508086     0.000773808686063
   0.000467221922008     0.000847934512421     0.000847934512421
   0.000298029510304     0.000853704288602     0.000742569332942
   0.000367646513041     0.001053121872246     0.000778931716923
   0.000303061882732     0.000632325769402     0.000632325769402
   0.000370872003259     0.000773808686063     0.000673074508086
   0.000451509462437     0.000942055368796     0.000696782430168
   0.000621222367045     0.001547835534438     0.001084528979845
   0.000587575661484     0.001066357712261     0.000906763714738
   0.000732653716113     0.001329651568085     0.000931653019506
   0.000448916136520     0.001285918406211     0.000783717026934
   0.000538105785381     0.001541401841678     0.000738764996640
   0.000543617992662     0.001134235877544     0.000691272492986
   0.000642456405330     0.001340458053164     0.000642456405330
   0.000488334218971     0.001216731965542     0.001034632558003
   0.000642456405330     0.000642456405330     0.001340458053164
   0.000621222367045     0.001084528979845     0.001547835534438
   0.000732653716113     0.000931653019506     0.001329651568085
   0.000777070585173     0.001066839555278     0.001936146407388
   0.000460593990283     0.001556144328788     0.001556144328788
   0.000653609109577     0.001384800067171     0.001384800067171
   0.000631413247902     0.001757803722285     0.002133267233148
   0.000767335994169     0.001184174907394     0.001184174907394
   0.000875149213243     0.001527834101580     0.001854176516645
   0.000858404906467     0.001879288465716     0.002900172024965
   0.000188601494301     0.001848606625572     0.001295271562412
   0.000436163507402     0.001732964650728     0.001214244170114
   0.000277600804111     0.002313722856343     0.001906498451717
  -0.000075793876022     0.001829113578424     0.000876659876667
   0.000160829877132     0.001812327071093     0.000868614355568
  -0.000114580405352     0.002405173843727     0.001325279125012
   0.000374127033865     0.001708952127956     0.000819068751298
   0.000242497000727     0.002376871649176     0.001309684361331
  -0.000182044881512     0.003249419620261     0.002105598105118
   0.000621222367045     0.001547835534438     0.001084528979845
   0.000732653716113     0.001329651568085     0.000931653019506
   0.000875149213243     0.001854176516645     0.001527834101580
   0.000538105785381     0.001541401841678     0.000738764996640
   0.000555006961804     0.002205153461546     0.001215065596625
   0.000642456405330     0.001340458053164     0.000642456405330
   0.000777070585173     0.001936146407388     0.001066839555278
   0.000858404906467     0.002900172024965     0.001879288465716
   0.000419029878685     0.002877800725400     0.002877800725400
   0.000932356051635     0.002595604397357     0.002595604397357
   0.000641677062958     0.003465586807579     0.004406889900565
   0.000383828999475     0.003199104219675     0.002072994131595
  -0.000306039291900     0.004501213785261     0.003539763158187
   0.000641677062958     0.004406889900565     0.003465586807579
  -0.000545285176486     0.006306969095021     0.006306969095021
   0.000631413247902     0.002133267233148     0.001757803722285
   0.000642456405330     0.000642456405330     0.001340458053164
   0.000621222367045     0.001084528979845     0.001547835534438
   0.000777070585173     0.001066839555278     0.001936146407388
   0.000538105785381     0.000738764996640     0.001541401841678
   0.000460593990283     0.001556144328788     0.001556144328788
   0.000631413247902     0.001757803722285     0.002133267233148
   0.000436163507402     0.001214244170114     0.001732964650728
   0.000858404906467     0.001879288465716     0.002900172024965
   0.000555006961804     0.001215065596625     0.002205153461546
   0.000374127033865     0.000819068751298     0.001708952127956
   0.000188601494301     0.001848606625572     0.001295271562412
   0.000277600804111     0.002313722856343     0.001906498451717
   0.000199607951799     0.001663674716838     0.001663674716838
  -0.000075793876022     0.001829113578424     0.000876659876667
  -0.000114580405352     0.002405173843727     0.001325279125012
  -0.000088965440227     0.001867486396804     0.001308500184678
  -0.000182044881512     0.003249419620261     0.002105598105118
  -0.000131299311761     0.002343633677810     0.001931144972332
  -0.000094190923846     0.001681265770458     0.001681265770458
   0.000419029878685     0.002877800725400     0.002877800725400
   0.000641677062958     0.003465586807579     0.004406889900565
   0.000383828999475     0.002072994131595     0.003199104219675
  -0.000306039291900     0.004501213785261     0.003539763158187
  -0.000198907218874     0.002925519598648     0.002925519598648
  -0.000545285176486     0.006306969095021     0.006306969095021
  -0.000306039291900     0.003539763158187     0.004501213785261
  -0.000182044881512     0.002105598105118     0.003249419620261
   0.000188601494301     0.001295271562412     0.001848606625572
   0.000242497000727     0.001309684361331     0.002376871649176
   0.000160829877132     0.000868614355568     0.001812327071093
  -0.000131299311761     0.001931144972332     0.002343633677810
  -0.000088965440227     0.001308500184678     0.001867486396804
  -0.000114580405352     0.001325279125012     0.002405173843727
  -0.000075793876022     0.000876659876667     0.001829113578424
   0.000277600804111     0.001906498451717     0.002313722856343
   0.002684810664505    -0.000111251814815    -0.000111251814815
   0.004008048214018    -0.000190939957974    -0.000190939957974
   0.003944221418351    -0.000187899306184     0.000402403646149
   0.002653770148754     0.000235501385760    -0.000109965571028
   0.006616024766117    -0.000370654946892    -0.000370654946892
   0.006461264565587    -0.000361984682968     0.000775223539677
   0.003944221418351     0.000402403646149    -0.000187899306184
   0.005581071134657    -0.000312672898872     0.001651908387430
   0.003882000222802     0.000396055635065     0.000396055635065
   0.002465215045959     0.000539689499419    -0.000102152320324
   0.012922213412821    -0.000878586433828    -0.000878586433828
   0.012431726790965    -0.000845238042530     0.001810154994018
   0.006461264565587     0.000775223539677    -0.000361984682968
   0.035515245050192    -0.003070561680943    -0.003070561680943
   0.032895591109991    -0.002844072878361     0.006090843584388
   0.012431726790965     0.001810154994018    -0.000845238042530
   0.021341001614928    -0.001845090999268     0.009747955016792
   0.011969792656600     0.001742893713526     0.001742893713526
   0.005581071134657     0.001651908387430    -0.000312672898872
   0.009849485009909    -0.000669670407660     0.003537991782650
   0.006856612395495    -0.000466183788376     0.003927493933588
   0.005462664645165     0.000655411335174     0.001616861904040
   0.011720533482730    -0.001013328786939     0.008537068031728
   0.009527762420475     0.001387315453030     0.003422427223995
   0.006306969095021    -0.000545285176486     0.006306969095021
   0.006673867814243     0.000971766421571     0.003822817001492