# vtk DataFile Version 2.0
hp3d export mesh 
ASCII
DATASET UNSTRUCTURED_GRID
POINTS         1680  double
      0.000000000000000     0.000000000000000     6.283184000000000
      0.785398000000000     0.785398000000000     6.283184000000000
      0.000000000000000     0.785398000000000     5.497786000000001
      0.000000000000000     0.785398000000000     6.283184000000000
      1.570796000000000     1.570796000000000     6.283184000000000
      0.785398000000000     1.570796000000000     5.497786000000001
      0.785398000000000     1.570796000000000     6.283184000000000
      0.000000000000000     1.570796000000000     4.712388000000001
      0.000000000000000     1.570796000000000     5.497786000000000
      0.000000000000000     1.570796000000000     6.283184000000000
      2.356194000000000     2.356194000000000     6.283184000000000
      1.570796000000000     2.356194000000000     5.497786000000001
      1.570796000000000     2.356194000000000     6.283184000000000
      3.141592000000000     3.141592000000000     6.283184000000000
      2.356194000000000     3.141592000000000     5.497786000000001
      2.356194000000000     3.141592000000000     6.283184000000000
      1.570796000000000     3.141592000000000     4.712388000000001
      1.570796000000000     3.141592000000000     5.497786000000000
      1.570796000000000     3.141592000000000     6.283184000000000
      0.785398000000000     2.356194000000000     4.712388000000001
      0.000000000000000     2.356194000000000     3.926990000000000
      0.000000000000000     2.356194000000000     4.712388000000001
      0.785398000000000     3.141592000000000     3.926990000000000
      0.785398000000000     3.141592000000000     4.712388000000001
      0.000000000000000     3.141592000000000     3.141592000000000
      0.000000000000000     3.141592000000000     3.926990000000000
      0.000000000000000     3.141592000000000     4.712388000000001
      0.785398000000000     2.356194000000000     6.283184000000000
      0.000000000000000     2.356194000000000     5.497786000000001
      0.000000000000000     2.356194000000000     6.283184000000000
      0.785398000000000     3.141592000000000     5.497786000000001
      0.785398000000000     3.141592000000000     6.283184000000000
      0.000000000000000     3.141592000000000     5.497786000000001
      0.000000000000000     3.141592000000000     6.283184000000000
      0.785398000000000     2.356194000000000     5.497786000000000
      3.141592000000000     3.141592000000000     6.283184000000000
      3.926990000000000     3.926990000000000     6.283184000000000
      3.141592000000000     3.926990000000000     5.497786000000001
      3.141592000000000     3.926990000000000     6.283184000000000
      4.712388000000001     4.712388000000001     6.283184000000000
      3.926990000000000     4.712388000000001     5.497786000000001
      3.926990000000000     4.712388000000001     6.283184000000000
      3.141592000000000     4.712388000000001     4.712388000000001
      3.141592000000000     4.712388000000001     5.497786000000000
      3.141592000000000     4.712388000000001     6.283184000000000
      5.497786000000001     5.497786000000001     6.283184000000000
      4.712388000000000     5.497786000000000     5.497786000000001
      4.712388000000000     5.497786000000000     6.283184000000000
      6.283184000000000     6.283184000000000     6.283184000000000
      5.497786000000001     6.283184000000000     5.497786000000001
      5.497786000000001     6.283184000000000     6.283184000000000
      4.712388000000001     6.283184000000000     4.712388000000001
      4.712388000000000     6.283184000000000     5.497786000000000
      4.712388000000001     6.283184000000000     6.283184000000000
      3.926990000000000     5.497786000000001     4.712388000000001
      3.141592000000000     5.497786000000001     3.926990000000000
      3.141592000000000     5.497786000000000     4.712388000000001
      3.926990000000000     6.283184000000000     3.926990000000000
      3.926990000000000     6.283184000000000     4.712388000000001
      3.141592000000000     6.283184000000000     3.141592000000000
      3.141592000000000     6.283184000000000     3.926990000000000
      3.141592000000000     6.283184000000000     4.712388000000001
      3.926990000000000     5.497786000000001     6.283184000000000
      3.141592000000000     5.497786000000001     5.497786000000001
      3.141592000000000     5.497786000000001     6.283184000000000
      3.926990000000000     6.283184000000000     5.497786000000001
      3.926990000000000     6.283184000000000     6.283184000000000
      3.141592000000000     6.283184000000000     5.497786000000001
      3.141592000000000     6.283184000000000     6.283184000000000
      3.926990000000000     5.497786000000001     5.497786000000000
      0.000000000000000     3.141592000000000     3.141592000000000
      0.785398000000000     3.926990000000000     3.141592000000000
      0.000000000000000     3.926990000000000     2.356194000000000
      0.000000000000000     3.926990000000000     3.141592000000000
      1.570796000000000     4.712388000000001     3.141592000000000
      0.785398000000000     4.712388000000001     2.356194000000000
      0.785398000000000     4.712388000000001     3.141592000000000
      0.000000000000000     4.712388000000001     1.570796000000000
      0.000000000000000     4.712388000000001     2.356194000000000
      0.000000000000000     4.712388000000001     3.141592000000000
      2.356194000000000     5.497786000000001     3.141592000000000
      1.570796000000000     5.497786000000000     2.356194000000000
      1.570796000000000     5.497786000000000     3.141592000000000
      3.141592000000000     6.283184000000000     3.141592000000000
      2.356194000000000     6.283184000000000     2.356194000000000
      2.356194000000000     6.283184000000000     3.141592000000000
      1.570796000000000     6.283184000000000     1.570796000000000
      1.570796000000000     6.283184000000000     2.356194000000000
      1.570796000000000     6.283184000000000     3.141592000000000
      0.785398000000000     5.497786000000001     1.570796000000000
      0.000000000000000     5.497786000000001     0.785398000000000
      0.000000000000000     5.497786000000000     1.570796000000000
      0.785398000000000     6.283184000000000     0.785398000000000
      0.785398000000000     6.283184000000000     1.570796000000000
      0.000000000000000     6.283184000000000     0.000000000000000
      0.000000000000000     6.283184000000000     0.785398000000000
      0.000000000000000     6.283184000000000     1.570796000000000
      0.785398000000000     5.497786000000001     3.141592000000000
      0.000000000000000     5.497786000000001     2.356194000000000
      0.000000000000000     5.497786000000001     3.141592000000000
      0.785398000000000     6.283184000000000     2.356194000000000
      0.785398000000000     6.283184000000000     3.141592000000000
      0.000000000000000     6.283184000000000     2.356194000000000
      0.000000000000000     6.283184000000000     3.141592000000000
      0.785398000000000     5.497786000000001     2.356194000000000
      0.000000000000000     3.141592000000000     6.283184000000000
      0.785398000000000     3.926990000000000     6.283184000000000
      0.000000000000000     3.926990000000000     5.497786000000001
      0.000000000000000     3.926990000000000     6.283184000000000
      1.570796000000000     4.712388000000001     6.283184000000000
      0.785398000000000     4.712388000000001     5.497786000000001
      0.785398000000000     4.712388000000001     6.283184000000000
      0.000000000000000     4.712388000000001     4.712388000000001
      0.000000000000000     4.712388000000001     5.497786000000000
      0.000000000000000     4.712388000000001     6.283184000000000
      2.356194000000000     5.497786000000001     6.283184000000000
      1.570796000000000     5.497786000000000     5.497786000000001
      1.570796000000000     5.497786000000000     6.283184000000000
      3.141592000000000     6.283184000000000     6.283184000000000
      2.356194000000000     6.283184000000000     5.497786000000001
      2.356194000000000     6.283184000000000     6.283184000000000
      1.570796000000000     6.283184000000000     4.712388000000001
      1.570796000000000     6.283184000000000     5.497786000000000
      1.570796000000000     6.283184000000000     6.283184000000000
      0.785398000000000     5.497786000000001     4.712388000000001
      0.000000000000000     5.497786000000001     3.926990000000000
      0.000000000000000     5.497786000000000     4.712388000000001
      0.785398000000000     6.283184000000000     3.926990000000000
      0.785398000000000     6.283184000000000     4.712388000000001
      0.000000000000000     6.283184000000000     3.141592000000000
      0.000000000000000     6.283184000000000     3.926990000000000
      0.000000000000000     6.283184000000000     4.712388000000001
      0.785398000000000     5.497786000000001     6.283184000000000
      0.000000000000000     5.497786000000001     5.497786000000001
      0.000000000000000     5.497786000000001     6.283184000000000
      0.785398000000000     6.283184000000000     5.497786000000001
      0.785398000000000     6.283184000000000     6.283184000000000
      0.000000000000000     6.283184000000000     5.497786000000001
      0.000000000000000     6.283184000000000     6.283184000000000
      0.785398000000000     5.497786000000001     5.497786000000000
      3.141592000000000     3.141592000000000     6.283184000000000
      2.356194000000000     3.926990000000000     5.497786000000001
      2.356194000000000     3.141592000000000     6.283184000000000
      3.141592000000000     3.926990000000000     6.283184000000000
      1.570796000000000     4.712388000000001     4.712388000000001
[...]
POINT_DATA         1680
SCALARS          H1_SC_EX double 1
LOOKUP_TABLE default
  86.229675292968750
  86.969200134277344
  70.977935791015625
  86.599998474121094
  91.673377990722656
  74.116348266601563
  89.343597412109375
  58.568229675292969
  73.703361511230469
  88.981491088867188
  99.927055358886719
  81.496513366699219
  95.865478515625000
 111.128555297851563
  92.381210327148438
 105.639656066894531
  74.937652587890625
  88.070129394531250
 101.748298645019531
  64.627532958984375
  50.256118774414063
  64.174896240234375
  59.525241851806641
  72.243713378906250
  47.298252105712891
  59.047958374023438
  71.823455810546875
  93.611877441406250
  78.562889099121094
  93.261856079101563
  85.670600891113281
  99.593498229980469
  85.297401428222656
  99.259117126464844
  78.958213806152344
 111.128555297851563
 124.657218933105469
 105.958869934082031
 118.042800903320313
 139.972976684570313
 121.528663635253906
 132.490631103515625
 104.192863464355469
 114.775810241699219
 126.198677062988281
 156.647064208984375
 138.554153442382813
 148.499877929687500
 174.354614257812500
 156.647064208984375
 165.696578979492188
 139.972976684570313
 148.499877929687500
 157.932632446289063
 121.528663635253906
 105.958869934082031
 114.775810241699219
 124.657218933105469
 132.490631103515625
 111.128555297851563
 118.042800903320313
 126.198677062988281
 141.380371093750000
 124.657218933105469
 135.417648315429688
 141.380371093750000
 151.174880981445313
 135.417648315429688
 145.536590576171875
 131.007736206054688
  47.298252105712891
  59.525241851806641
  50.256118774414063
  59.047958374023438
  74.937652587890625
  64.627532958984375
  72.243713378906250
  58.568229675292969
  64.174896240234375
  71.823455810546875
  92.381210327148438
  81.496513366699219
  88.070129394531250
 111.128555297851563
  99.927055358886719
 105.639656066894531
  91.673377990722656
  95.865478515625000
 101.748298645019531
  74.116348266601563
  70.977935791015625
  73.703361511230469
  86.969200134277344
  89.343597412109375
  86.229675292968750
  86.599998474121094
  88.981491088867188
  85.670600891113281
  78.562889099121094
  85.297401428222656
  93.611877441406250
  99.593498229980469
  93.261856079101563
  99.259117126464844
  78.958213806152344
  99.259117126464844
 107.071670532226563
  93.611877441406250
 106.754974365234375
 117.748901367187500
 103.545547485351563
 115.823417663574219
  91.673377990722656
 103.220748901367188
 115.525177001953125
 130.736877441406250
 116.121070861816406
 127.449165344238281
 145.536590576171875
 130.736877441406250
 141.125503540039063
 117.748901367187500
 127.449165344238281
 138.035705566406250
 103.545547485351563
  93.611877441406250
 103.220748901367188
 107.071670532226563
 115.823417663574219
  99.259117126464844
 106.754974365234375
 115.525177001953125
 125.640258789062500
 113.872978210449219
 125.360321044921875
 125.640258789062500
 136.338836669921875
 125.360321044921875
 136.076431274414063
 114.174530029296875
 111.128555297851563
 100.259788513183594
 105.639656066894531
 118.042800903320313
  94.309074401855469
  96.208541870117188
 109.425933837890625
 101.748298645019531
 112.811508178710938
 126.198677062988281
  93.960952758789063
  92.027786254882813
 105.639656066894531
  99.259117126464844
  93.611877441406250
 107.071670532226563
  91.673377990722656
 103.545547485351563
 117.748901367187500
  93.960952758789063
  99.593498229980469
 109.114425659179688
  93.611877441406250
 103.545547485351563
  99.259117126464844
 107.071670532226563
 117.748901367187500
 119.650352478027344
 121.241333007812500
 135.417648315429688
 116.121070861816406
 130.736877441406250
 130.736877441406250
 145.536590576171875
 105.639656066894531
 111.128555297851563
 100.259788513183594
 118.042800903320313
 105.958869934082031
  94.309074401855469
 109.425933837890625
  98.418167114257813
 126.198677062988281
 114.775810241699219
 104.192863464355469
  93.960952758789063
 105.639656066894531
  96.208541870117188
  99.259117126464844
 107.071670532226563
  99.593498229980469
 117.748901367187500
 109.114425659179688
 101.748298645019531
 119.650352478027344
 135.417648315429688
 124.657218933105469
 130.736877441406250
 121.241333007812500
 145.536590576171875
 135.417648315429688
 126.198677062988281
 100.259788513183594
 114.775810241699219
 105.958869934082031
 112.811508178710938
 105.639656066894531
 118.042800903320313
 111.128555297851563
 109.425933837890625
 111.128555297851563
 100.259788513183594
 105.958869934082031
  92.381210327148438
  94.309074401855469
  98.418167114257813
  83.980506896972656
 104.192863464355469
  88.434921264648438
  74.937652587890625
  93.960952758789063
  96.208541870117188
  81.496513366699219
  99.259117126464844
  99.593498229980469
  85.297401428222656
 101.748298645019531
  85.670600891113281
  71.823455810546875
 100.259788513183594
 105.958869934082031
  88.434921264648438
 105.639656066894531
  88.070129394531250
 111.128555297851563
  92.381210327148438
  74.937652587890625
  69.909759521484375
  72.662315368652344
  59.525241851806641
  72.243713378906250
  59.047958374023438
  59.525241851806641
  47.298252105712891
  83.980506896972656
 111.128555297851563
 100.259788513183594
  92.381210327148438
 105.639656066894531
  94.309074401855469
  83.980506896972656
  96.208541870117188
  74.937652587890625
  88.070129394531250
 101.748298645019531
  93.960952758789063
  81.496513366699219
  92.027786254882813
  99.259117126464844
  85.297401428222656
  93.611877441406250
  71.823455810546875
  81.109855651855469
  91.673377990722656
  69.909759521484375
  59.525241851806641
  72.243713378906250
  59.047958374023438
  69.480087280273438
  47.298252105712891
  59.047958374023438
  71.823455810546875
  93.960952758789063
  85.670600891113281
  99.593498229980469
  81.109855651855469
  93.611877441406250
  85.297401428222656
  99.259117126464844
  81.496513366699219
  86.229675292968750
  70.552627563476563
  70.977935791015625
  86.599998474121094
  54.886425018310547
  55.385776519775391
  70.977935791015625
  58.568229675292969
  71.401542663574219
  88.981491088867188
  39.237953186035156
  39.842288970947266
  55.385776519775391
  23.621507644653320
  24.385944366455078
  39.842288970947266
  29.134548187255859
  40.441757202148438
  58.568229675292969
  43.659065246582031
  50.256118774414063
  59.047958374023438
  37.080268859863281
  44.229534149169922
  47.298252105712891
  50.782539367675781
  62.110027313232422
  73.703361511230469
  74.116348266601563
  93.261856079101563
  59.047958374023438
  78.562889099121094
  78.958213806152344
  99.259117126464844
  55.882369995117188
  23.621507644653320
   8.072228431701660
   9.109203338623047
  24.385944366455078
  -7.295068740844727
  -5.702093601226807
   9.109203338623047
   3.049853563308716
  10.122161865234375
  29.134548187255859
 -21.809009552001953
 -18.693576812744141
  -5.702093601226807
 -25.980762481689453
 -21.809009552001953
 -18.693576812744141
  -7.295068740844727
 -16.094285964965820
   3.049853563308716
  -5.702093601226807
   9.109203338623047
   4.221074104309082
   8.072228431701660
  -4.192343711853027
  23.621507644653320
  10.122161865234375
  11.112699508666992
  15.331196784973145
  16.220388412475586
  37.080268859863281
   4.221074104309082
  25.140607833862305
  25.885862350463867
  47.298252105712891
  -4.192343711853027
  47.298252105712891
  37.080268859863281
  50.256118774414063
  47.843551635742188
  29.134548187255859
  43.659065246582031
  37.702632904052734
  58.568229675292969
  50.782539367675781
  51.305736541748047
  24.385944366455078
  39.842288970947266
  29.833652496337891
  23.621507644653320
  39.237953186035156
  25.140607833862305
  54.886425018310547
  40.441757202148438
  34.207538604736328
  55.385776519775391
  70.977935791015625
  59.047958374023438
  70.552627563476563
  55.882369995117188
  86.229675292968750
  71.401542663574219
  62.110027313232422
  41.626564025878906
  54.130172729492188
  57.356075286865234
  47.843551635742188
  48.385269165039063
  60.000122070312500
  65.526672363281250
  44.229534149169922
  99.259117126464844
  85.297401428222656
  85.670600891113281
 106.754974365234375
  71.823455810546875
  72.243713378906250
  93.611877441406250
  74.937652587890625
  93.960952758789063
 115.525177001953125
  59.047958374023438
  59.525241851806641
  81.109855651855469
  47.298252105712891
  47.843551635742188
  69.480087280273438
  51.305736541748047
  69.909759521484375
  91.673377990722656
  62.572277069091797
  67.960372924804688
  83.980506896972656
  57.356075286865234
  72.662315368652344
  65.526672363281250
  77.566940307617188
  94.309074401855469
 103.220748901367188
 103.545547485351563
 125.360321044921875
  92.027786254882813
 113.872978210449219
 114.174530029296875
 136.076431274414063
  81.496513366699219
  23.621507644653320
  25.140607833862305
  39.842288970947266
  24.385944366455078
  34.207538604736328
  44.229534149169922
  29.833652496337891
  58.568229675292969
  43.659065246582031
  29.134548187255859
  48.385269165039063
  54.130172729492188
  41.626564025878906
  65.526672363281250
  67.960372924804688
  57.356075286865234
  74.937652587890625
  62.572277069091797
  51.305736541748047
  64.627532958984375
  78.562889099121094
  64.174896240234375
  85.670600891113281
  72.243713378906250
  99.259117126464844
  85.297401428222656
  71.823455810546875
  37.702632904052734
  50.256118774414063
  37.080268859863281
  59.525241851806641
  47.843551635742188
  59.047958374023438
  47.298252105712891
  50.782539367675781
  23.621507644653320
  25.140607833862305
  24.385944366455078
   9.109203338623047
  34.207538604736328
  29.833652496337891
  16.220388412475586
  29.134548187255859
  10.122161865234375
   3.049853563308716
  48.385269165039063
  41.626564025878906
  30.525259017944336
  65.526672363281250
  57.356075286865234
  48.385269165039063
  51.305736541748047
  38.319683074951172
  34.207538604736328
  37.702632904052734
  37.080268859863281
  16.220388412475586
  47.843551635742188
  30.525259017944336
  47.298252105712891
  25.885862350463867
  11.112699508666992
  16.220388412475586
   4.221074104309082
   9.109203338623047
  21.661939620971680
  25.140607833862305
  10.122161865234375
  23.621507644653320
  21.661939620971680
  23.621507644653320
  25.140607833862305
   9.109203338623047
  24.385944366455078
  34.207538604736328
  16.220388412475586
  29.833652496337891
   3.049853563308716
  15.331196784973145
  29.134548187255859
  48.385269165039063
  30.525259017944336
  41.626564025878906
  65.526672363281250
  48.385269165039063
  57.356075286865234
  34.207538604736328
  41.626564025878906
  51.305736541748047
  16.220388412475586
   9.109203338623047
  15.331196784973145
  25.140607833862305
  29.833652496337891
  23.621507644653320
  24.385944366455078
  29.134548187255859
  37.702632904052734
  25.140607833862305
  37.080268859863281
  37.702632904052734
  47.843551635742188
  37.080268859863281
  47.298252105712891
  25.885862350463867
  23.621507644653320
  25.140607833862305
  24.385944366455078
  39.842288970947266
  34.207538604736328
  29.833652496337891
  44.229534149169922
  29.134548187255859
  40.441757202148438
  58.568229675292969
  48.385269165039063
  41.626564025878906
  54.130172729492188
  65.526672363281250
  57.356075286865234
  67.960372924804688
  51.305736541748047
  60.000122070312500
  74.937652587890625
  37.702632904052734
  37.080268859863281
  44.229534149169922
  47.843551635742188
  54.130172729492188
  47.298252105712891
  50.782539367675781
  62.110027313232422
  64.627532958984375
  59.047958374023438
  78.562889099121094
  67.522506713867188
  85.670600891113281
  78.958213806152344
  99.259117126464844
  47.843551635742188
  86.229675292968750
  70.977935791015625
  86.599998474121094
  86.599998474121094
  58.568229675292969
  73.703361511230469
  71.401542663574219
  88.981491088867188
  86.969200134277344
  88.981491088867188
  50.256118774414063
  64.174896240234375
  59.047958374023438
  47.298252105712891
  59.047958374023438
  50.782539367675781
  71.823455810546875
  64.627532958984375
  62.110027313232422
  78.562889099121094
  93.261856079101563
  89.343597412109375
  85.297401428222656
  78.958213806152344
  99.259117126464844
  93.611877441406250
  91.673377990722656
  74.116348266601563
  89.343597412109375
  93.261856079101563
  76.765022277832031
  78.958213806152344
  93.611877441406250
  99.259117126464844
  74.116348266601563
  47.298252105712891
  50.256118774414063
  59.047958374023438
  47.843551635742188
  58.568229675292969
  64.174896240234375
  50.782539367675781
  71.823455810546875
  59.525241851806641
  51.305736541748047
  70.977935791015625
  73.703361511230469
  59.047958374023438
  86.229675292968750
  86.599998474121094
  71.401542663574219
  88.981491088867188
  74.116348266601563
  62.110027313232422
  78.562889099121094
  85.297401428222656
  72.243713378906250
  93.261856079101563
  78.958213806152344
  99.259117126464844
  85.670600891113281
  74.937652587890625
  54.130172729492188
  62.572277069091797
  57.356075286865234
  67.522506713867188
  60.000122070312500
  67.960372924804688
  65.526672363281250
  64.627532958984375
  99.259117126464844
  93.611877441406250
 106.754974365234375
  99.593498229980469
  91.673377990722656
 103.220748901367188
  93.960952758789063
 115.525177001953125
 107.071670532226563
 101.748298645019531
  93.611877441406250
 103.220748901367188
  92.027786254882813
  99.259117126464844
 106.754974365234375
  93.960952758789063
 115.525177001953125
 103.545547485351563
  94.309074401855469
 113.872978210449219
 125.360321044921875
 115.823417663574219
 125.360321044921875
 114.174530029296875
 136.076431274414063
 125.640258789062500
 117.748901367187500
  96.208541870117188
 109.114425659179688
 105.639656066894531
 105.639656066894531
 100.259788513183594
 112.811508178710938
 111.128555297851563
 103.545547485351563
  99.259117126464844
  85.670600891113281
  99.593498229980469
 106.754974365234375
  74.937652587890625
  88.070129394531250
  93.960952758789063
 101.748298645019531
 107.071670532226563
 115.525177001953125
  67.960372924804688
  79.744758605957031
  83.980506896972656
  65.526672363281250
  75.346008300781250
  77.566940307617188
  86.413543701171875
  88.434921264648438
  94.309074401855469
  92.381210327148438
 105.639656066894531
 109.114425659179688
  98.418167114257813
 100.259788513183594
 111.128555297851563
 112.811508178710938
 117.748901367187500
 103.545547485351563
 115.823417663574219
 125.360321044921875
 105.639656066894531
 114.174530029296875
 125.640258789062500
 136.076431274414063
  96.208541870117188
  47.298252105712891
  59.525241851806641
  50.782539367675781
  47.843551635742188
  74.937652587890625
  67.522506713867188
  62.572277069091797
  62.110027313232422
  54.130172729492188
  51.305736541748047
  92.381210327148438
  86.042640686035156
  79.744758605957031
 111.128555297851563
 105.639656066894531
  98.418167114257813
 101.748298645019531
  92.381210327148438
  86.413543701171875
  81.496513366699219
  78.958213806152344
  67.522506713867188
  99.593498229980469
  88.070129394531250
  99.259117126464844
  85.670600891113281
  74.937652587890625
  67.960372924804688
  60.000122070312500
  57.356075286865234
  79.744758605957031
  75.346008300781250
  67.960372924804688
  65.526672363281250
  72.662315368652344
  47.298252105712891
  59.525241851806641
  47.843551635742188
  59.047958374023438
  74.937652587890625
  62.572277069091797
  69.909759521484375
  51.305736541748047
  59.525241851806641
  71.823455810546875
  92.381210327148438
  79.744758605957031
  83.980506896972656
 111.128555297851563
  98.418167114257813
 100.259788513183594
  86.413543701171875
  88.434921264648438
  94.309074401855469
  67.960372924804688
  57.356075286865234
  62.572277069091797
  75.346008300781250
  77.566940307617188
  65.526672363281250
  67.960372924804688
  74.937652587890625
  81.496513366699219
  72.243713378906250
  85.297401428222656
  83.980506896972656
  93.960952758789063
  85.670600891113281
  99.259117126464844
  72.662315368652344
  47.298252105712891
  59.525241851806641
  59.047958374023438
  59.047958374023438
  74.937652587890625
  69.909759521484375
  72.243713378906250
  71.823455810546875
  69.480087280273438
  71.823455810546875
  92.381210327148438
  83.980506896972656
  88.070129394531250
 111.128555297851563
 100.259788513183594
 105.639656066894531
  94.309074401855469
  96.208541870117188
 101.748298645019531
  81.496513366699219
  85.297401428222656
  81.109855651855469
  93.960952758789063
  92.027786254882813
  99.259117126464844
  93.611877441406250
  91.673377990722656
  85.670600891113281
  81.109855651855469
  85.297401428222656
  93.960952758789063
  99.593498229980469
  93.611877441406250
  99.259117126464844
  81.496513366699219
  47.298252105712891
  59.525241851806641
  59.047958374023438
  50.782539367675781
  74.937652587890625
  72.243713378906250
  67.522506713867188
  71.823455810546875
  64.627532958984375
  62.110027313232422
  92.381210327148438
  88.070129394531250
  86.042640686035156
 111.128555297851563
 105.639656066894531
 105.639656066894531
 101.748298645019531
  99.927055358886719
 101.748298645019531
  85.670600891113281
  85.297401428222656
  78.958213806152344
  99.593498229980469
  95.865478515625000
  99.259117126464844
  93.611877441406250
  91.673377990722656
  81.496513366699219
  76.765022277832031
  78.958213806152344
  95.865478515625000
  99.593498229980469
  93.611877441406250
  99.259117126464844
  81.496513366699219
 -25.980762481689453
 -21.809009552001953
 -21.809009552001953
 -18.693576812744141
  -7.295068740844727
 -18.693576812744141
  -5.702093601226807
  -7.295068740844727
 -16.094285964965820
   3.049853563308716
   8.072228431701660
  -5.702093601226807
   9.109203338623047
  23.621507644653320
   9.109203338623047
  24.385944366455078
   3.049853563308716
  10.122161865234375
  29.134548187255859
  -5.702093601226807
   8.072228431701660
  -4.192343711853027
   9.109203338623047
   4.221074104309082
  23.621507644653320
  10.122161865234375
  11.112699508666992
  15.331196784973145
   4.221074104309082
  25.140607833862305
  16.220388412475586
  37.080268859863281
  25.885862350463867
  47.298252105712891
  -4.192343711853027
  23.621507644653320
  39.237953186035156
  24.385944366455078
  39.842288970947266
  54.886425018310547
  39.842288970947266
  55.385776519775391
  29.134548187255859
  40.441757202148438
  58.568229675292969
  70.552627563476563
  55.385776519775391
  70.977935791015625
  86.229675292968750
  70.977935791015625
  86.599998474121094
  58.568229675292969
  71.401542663574219
  88.981491088867188
  43.659065246582031
  37.080268859863281
  44.229534149169922
  50.256118774414063
  59.047958374023438
  47.298252105712891
  50.782539367675781
  62.110027313232422
  73.703361511230469
  59.047958374023438
  78.562889099121094
  74.116348266601563
  93.261856079101563
  78.958213806152344
  99.259117126464844
  55.882369995117188
  23.621507644653320
  24.385944366455078
  39.237953186035156
  25.140607833862305
  29.134548187255859
  39.842288970947266
  29.833652496337891
  54.886425018310547
  40.441757202148438
  34.207538604736328
  37.080268859863281
  43.659065246582031
  37.702632904052734
  47.298252105712891
  50.256118774414063
  47.843551635742188
  58.568229675292969
  50.782539367675781
  51.305736541748047
  55.385776519775391
  70.552627563476563
  55.882369995117188
  70.977935791015625
  59.047958374023438
  86.229675292968750
  71.401542663574219
  62.110027313232422
  41.626564025878906
  47.843551635742188
  48.385269165039063
  54.130172729492188
  57.356075286865234
  60.000122070312500
  65.526672363281250
  44.229534149169922
  47.298252105712891
  59.047958374023438
  47.843551635742188